LAMMPS data file. CGCMM style. atom_style angle generated by VMD/TopoTools v1.8 on Thu Feb 03 11:11:45 +0530 2022
 3000 atoms
 2000 bonds
 1000 angles
 0 dihedrals
 0 impropers
 2 atom types
 1 bond types
 1 angle types
 0 dihedral types
 0 improper types
 -13.639156 13.510844  xlo xhi
 -13.488540 13.661460  ylo yhi
 -13.655239 13.494761  zlo zhi

# Pair Coeffs
#
# 1  A
# 2  B

# Bond Coeffs
#
# 1  A-B

# Angle Coeffs
#
# 1  A-B-A

 Masses

 1 1.000000 # A
 2 1.000000 # B

 Atoms # angle

1 1 1 -0.544011 -14.322750 -9.821111 # A 
2 1 2 -0.377020 -14.404526 -10.252767 # B 
3 1 1 -0.210029 -14.486301 -10.684422 # A 
4 1 1 -2.889771 11.572081 -14.078146 # A 
5 1 2 -2.866695 11.137964 -14.256780 # B 
6 1 1 -2.843620 10.703847 -14.435413 # A 
7 1 1 4.171361 -3.078411 4.056107 # A 
8 1 2 4.117065 -3.211010 4.503734 # B 
9 1 1 4.062770 -3.343609 4.951360 # A 
10 1 1 11.193289 3.162879 -2.103730 # A 
11 1 2 11.175325 2.965459 -2.529879 # B 
12 1 1 11.157361 2.768040 -2.956028 # A 
13 1 1 14.038497 -5.597641 12.165910 # A 
14 1 2 14.214977 -5.385407 11.785500 # B 
15 1 1 14.391458 -5.173173 11.405091 # A 
16 1 1 9.464304 10.157722 10.969731 # A 
17 1 2 9.383066 9.858151 10.616804 # B 
18 1 1 9.301827 9.558580 10.263877 # A 
19 1 1 10.898805 14.520248 9.911834 # A 
20 1 2 11.187386 14.511846 9.540956 # B 
21 1 1 11.475967 14.503444 9.170078 # A 
22 1 1 0.494585 7.549832 14.331367 # A 
23 1 2 0.077952 7.419918 14.156900 # B 
24 1 1 -0.338682 7.290004 13.982432 # A 
25 1 1 6.584249 -6.522318 13.836254 # A 
26 1 2 6.713484 -6.641666 13.400417 # B 
27 1 1 6.842719 -6.761014 12.964579 # A 
28 1 1 12.037340 11.787607 -10.926509 # A 
29 1 2 11.986532 11.711228 -11.387469 # B 
30 1 1 11.935724 11.634848 -11.848430 # A 
31 1 1 -5.721254 -7.008181 0.890245 # A 
32 1 2 -5.853784 -7.396943 1.118719 # B 
33 1 1 -5.986313 -7.785705 1.347193 # A 
34 1 1 13.880326 6.739391 -9.733757 # A 
35 1 2 13.944153 6.718867 -9.268564 # B 
36 1 1 14.007980 6.698344 -8.803370 # A 
37 1 1 5.587559 -9.578888 6.220557 # A 
38 1 2 5.760876 -9.449592 6.637862 # B 
39 1 1 5.934193 -9.320296 7.055167 # A 
40 1 1 -5.005108 -9.137181 -13.984325 # A 
41 1 2 -4.543201 -9.215772 -14.021281 # B 
42 1 1 -4.081295 -9.294364 -14.058236 # A 
43 1 1 -4.710591 10.869677 -5.956666 # A 
44 1 2 -4.682082 10.832491 -6.424325 # B 
45 1 1 -4.653573 10.795305 -6.891983 # A 
46 1 1 -7.323333 -10.909526 14.744925 # A 
47 1 2 -7.372350 -10.851987 14.281043 # B 
48 1 1 -7.421367 -10.794448 13.817161 # A 
49 1 1 0.878007 -9.411008 -11.364101 # A 
50 1 2 0.920297 -9.609525 -10.940188 # B 
51 1 1 0.962587 -9.808043 -10.516275 # A 
52 1 1 -9.533379 -1.549594 -3.171792 # A 
53 1 2 -9.293186 -1.530959 -2.768233 # B 
54 1 1 -9.052993 -1.512323 -2.364674 # A 
55 1 1 -6.407790 3.977345 7.717136 # A 
56 1 2 -6.429659 3.508109 7.701650 # B 
57 1 1 -6.451529 3.038874 7.686163 # A 
58 1 1 9.016027 -3.049859 -11.457911 # A 
59 1 2 9.100408 -3.495348 -11.581685 # B 
60 1 1 9.184788 -3.940836 -11.705459 # A 
61 1 1 6.144068 -10.101790 1.140375 # A 
62 1 2 6.550669 -9.981433 0.937668 # B 
63 1 1 6.957270 -9.861076 0.734962 # A 
64 1 1 -13.998605 5.694705 -1.013272 # A 
65 1 2 -14.196438 5.318507 -1.213864 # B 
66 1 1 -14.394271 4.942309 -1.414457 # A 
67 1 1 -5.467590 6.957724 -12.183033 # A 
68 1 2 -5.372384 7.334833 -11.919168 # B 
69 1 1 -5.277177 7.711941 -11.655303 # A 
70 1 1 10.467100 14.136342 2.372734 # A 
71 1 2 10.903198 14.301165 2.432335 # B 
72 1 1 11.339295 14.465989 2.491936 # A 
73 1 1 6.268147 9.045662 13.668536 # A 
74 1 2 6.265101 9.051211 14.138493 # B 
75 1 1 6.262055 9.056760 14.608451 # A 
76 1 1 12.889521 -11.004350 3.067691 # A 
77 1 2 13.353505 -10.984071 3.139849 # B 
78 1 1 13.817490 -10.963792 3.212007 # A 
79 1 1 -5.640597 -12.964044 -4.055642 # A 
80 1 2 -5.402825 -13.369034 -4.074297 # B 
81 1 1 -5.165054 -13.774024 -4.092951 # A 
82 1 1 -3.619659 -1.930827 9.134741 # A 
83 1 2 -3.909373 -2.054054 9.483713 # B 
84 1 1 -4.199086 -2.177281 9.832684 # A 
85 1 1 11.867203 -11.201012 14.390987 # A 
86 1 2 11.536599 -10.909244 14.228283 # B 
87 1 1 11.205996 -10.617477 14.065578 # A 
88 1 1 5.352423 6.141664 -6.613163 # A 
89 1 2 5.510264 6.431974 -6.278939 # B 
90 1 1 5.668106 6.722285 -5.944714 # A 
91 1 1 -3.242181 -13.257410 -13.964796 # A 
92 1 2 -3.236064 -13.651581 -13.708883 # B 
93 1 1 -3.229947 -14.045752 -13.452970 # A 
94 1 1 0.019187 7.882223 -14.232649 # A 
95 1 2 0.395049 7.637860 -14.373767 # B 
96 1 1 0.770911 7.393497 -14.514884 # A 
97 1 1 6.349959 -7.053268 8.986214 # A 
98 1 2 5.939976 -6.826517 9.023593 # B 
99 1 1 5.529993 -6.599765 9.060972 # A 
100 1 1 9.006456 1.387933 9.069296 # A 
101 1 2 8.761186 0.995416 8.987604 # B 
102 1 1 8.515916 0.602899 8.905913 # A 
103 1 1 -8.612640 -12.219373 -5.217878 # A 
104 1 2 -8.609649 -12.551006 -5.550910 # B 
105 1 1 -8.606659 -12.882638 -5.883943 # A 
106 1 1 3.740852 -7.449444 14.263511 # A 
107 1 2 3.698163 -7.001063 14.397793 # B 
108 1 1 3.655473 -6.552681 14.532075 # A 
109 1 1 1.586798 -8.097354 10.013814 # A 
110 1 2 1.533200 -8.334889 10.415814 # B 
111 1 1 1.479602 -8.572424 10.817814 # A 
112 1 1 14.149483 -4.736870 -4.096937 # A 
113 1 2 13.978425 -5.008550 -4.440200 # B 
114 1 1 13.807367 -5.280229 -4.783462 # A 
115 1 1 -0.766731 -5.482319 3.578183 # A 
116 1 2 -1.114517 -5.290962 3.326533 # B 
117 1 1 -1.462302 -5.099604 3.074883 # A 
118 1 1 3.318157 7.765611 -4.283979 # A 
119 1 2 3.574230 8.157720 -4.244255 # B 
120 1 1 3.830302 8.549828 -4.204532 # A 
121 1 1 -11.900196 -5.366788 -5.914814 # A 
122 1 2 -12.035450 -5.201527 -6.333496 # B 
123 1 1 -12.170704 -5.036266 -6.752179 # A 
124 1 1 -8.519624 8.749829 -4.842333 # A 
125 1 2 -8.066046 8.629105 -4.866670 # B 
126 1 1 -7.612467 8.508381 -4.891006 # A 
127 1 1 -9.086368 -3.352003 2.690058 # A 
128 1 2 -8.982136 -3.561124 3.097862 # B 
129 1 1 -8.877903 -3.770244 3.505666 # A 
130 1 1 -4.760975 2.142699 -3.831586 # A 
131 1 2 -4.589646 1.868314 -3.490617 # B 
132 1 1 -4.418318 1.593929 -3.149649 # A 
133 1 1 -3.059529 -0.765739 -11.340902 # A 
134 1 2 -3.031542 -0.334994 -11.154958 # B 
135 1 1 -3.003556 0.095751 -10.969014 # A 
136 1 1 -10.939011 11.318309 -6.977247 # A 
137 1 2 -11.306047 11.424859 -6.703693 # B 
138 1 1 -11.673083 11.531409 -6.430139 # A 
139 1 1 4.423663 3.543248 -10.660599 # A 
140 1 2 4.385182 3.203974 -10.337625 # B 
141 1 1 4.346701 2.864700 -10.014651 # A 
142 1 1 -11.608355 14.028250 2.580513 # A 
143 1 2 -11.651169 13.564129 2.520024 # B 
144 1 1 -11.693984 13.100009 2.459536 # A 
145 1 1 5.952477 9.643077 -6.663627 # A 
146 1 2 6.296808 9.587219 -6.348642 # B 
147 1 1 6.641139 9.531361 -6.033656 # A 
148 1 1 8.919341 -11.336837 -1.063776 # A 
149 1 2 9.161105 -11.317911 -0.661169 # B 
150 1 1 9.402869 -11.298986 -0.258563 # A 
151 1 1 -14.271244 11.342059 -11.790753 # A 
152 1 2 -14.155492 10.888826 -11.745126 # B 
153 1 1 -14.039741 10.435594 -11.699499 # A 
154 1 1 -8.919805 0.576123 -11.634047 # A 
155 1 2 -8.959402 0.108090 -11.650691 # B 
156 1 1 -8.998999 -0.359943 -11.667336 # A 
157 1 1 14.067782 -5.598521 4.155940 # A 
158 1 2 14.150097 -5.532537 3.697933 # B 
159 1 1 14.232413 -5.466553 3.239926 # A 
160 1 1 -11.196986 10.622224 4.044402 # A 
161 1 2 -10.915438 10.558997 4.415391 # B 
162 1 1 -10.633890 10.495771 4.786381 # A 
163 1 1 -2.592126 -4.361824 -14.074482 # A 
164 1 2 -2.210988 -4.627893 -14.144061 # B 
165 1 1 -1.829851 -4.893963 -14.213639 # A 
166 1 1 -4.142513 10.540882 -11.489652 # A 
167 1 2 -3.756446 10.275384 -11.526567 # B 
168 1 1 -3.370378 10.009886 -11.563482 # A 
169 1 1 -14.327721 8.060206 0.797760 # A 
170 1 2 -13.970129 7.872385 1.038075 # B 
171 1 1 -13.612537 7.684565 1.278391 # A 
172 1 1 14.360943 0.264070 13.934840 # A 
173 1 2 14.382098 0.651751 13.669971 # B 
174 1 1 14.403253 1.039433 13.405102 # A 
175 1 1 2.498428 6.221787 9.744948 # A 
176 1 2 2.209249 6.344897 10.094404 # B 
177 1 1 1.920070 6.468008 10.443859 # A 
178 1 1 -13.504488 -1.468807 14.064631 # A 
179 1 2 -13.946591 -1.400957 13.920266 # B 
180 1 1 -14.388694 -1.333107 13.775900 # A 
181 1 1 13.709722 7.182749 -1.396111 # A 
182 1 2 13.426645 6.807607 -1.402097 # B 
183 1 1 13.143567 6.432465 -1.408082 # A 
184 1 1 5.736117 -5.661049 3.602216 # A 
185 1 2 5.295592 -5.807240 3.528284 # B 
186 1 1 4.855067 -5.953431 3.454352 # A 
187 1 1 9.077681 6.399070 5.505167 # A 
188 1 2 9.301820 6.803225 5.590725 # B 
189 1 1 9.525958 7.207381 5.676284 # A 
190 1 1 11.482629 -9.363412 -10.226661 # A 
191 1 2 11.539283 -9.090418 -10.605033 # B 
192 1 1 11.595937 -8.817425 -10.983404 # A 
193 1 1 3.995493 -4.729051 -10.569091 # A 
194 1 2 4.039946 -4.404638 -10.231925 # B 
195 1 1 4.084398 -4.080226 -9.894760 # A 
196 1 1 -1.551802 11.444890 -9.349772 # A 
197 1 2 -1.321343 11.365875 -9.751699 # B 
198 1 1 -1.090883 11.286860 -10.153626 # A 
199 1 1 -14.498103 -11.016047 13.645406 # A 
200 1 2 -14.179779 -11.000434 13.990842 # B 
201 1 1 -13.861455 -10.984820 14.336279 # A 
202 1 1 -14.113102 14.036231 11.994568 # A 
203 1 2 -14.141682 14.162311 11.542698 # B 
204 1 1 -14.170262 14.288391 11.090827 # A 
205 1 1 11.127081 -3.918444 1.505878 # A 
206 1 2 11.568267 -3.998042 1.647013 # B 
207 1 1 12.009453 -4.077639 1.788148 # A 
208 1 1 2.734041 3.772529 -1.809863 # A 
209 1 2 2.954331 3.897264 -1.413866 # B 
210 1 1 3.174620 4.021999 -1.017869 # A 
211 1 1 9.068911 8.321686 -13.560966 # A 
212 1 2 9.020560 8.301134 -14.028021 # B 
213 1 1 8.972209 8.280583 -14.495075 # A 
214 1 1 -6.271132 7.298207 -1.639257 # A 
215 1 2 -6.410853 7.671920 -1.887686 # B 
216 1 1 -6.550574 8.045633 -2.136114 # A 
217 1 1 -5.908524 -1.366185 -0.764391 # A 
218 1 2 -5.502574 -1.146622 -0.675527 # B 
219 1 1 -5.096624 -0.927060 -0.586663 # A 
220 1 1 13.133511 0.658919 -14.059369 # A 
221 1 2 13.593376 0.659869 -14.156442 # B 
222 1 1 14.053241 0.660820 -14.253515 # A 
223 1 1 8.643149 1.472005 -3.952953 # A 
224 1 2 8.482888 1.609137 -3.532939 # B 
225 1 1 8.322627 1.746269 -3.112926 # A 
226 1 1 -9.222171 -11.223874 11.499345 # A 
227 1 2 -9.363753 -11.299988 11.057687 # B 
228 1 1 -9.505334 -11.376103 10.616030 # A 
229 1 1 -4.494785 8.715217 4.523491 # A 
230 1 2 -4.871990 8.579566 4.278102 # B 
231 1 1 -5.249195 8.443916 4.032713 # A 
232 1 1 12.055131 8.519442 4.844205 # A 
233 1 2 12.062980 8.539215 4.374686 # B 
234 1 1 12.070829 8.558988 3.905168 # A 
235 1 1 14.338458 1.406627 -4.384701 # A 
236 1 2 13.870536 1.431117 -4.421436 # B 
237 1 1 13.402614 1.455606 -4.458171 # A 
238 1 1 -11.205546 -6.798741 14.121079 # A 
239 1 2 -11.046760 -6.358873 14.074144 # B 
240 1 1 -10.887974 -5.919005 14.027209 # A 
241 1 1 -0.840554 -13.469736 -0.498919 # A 
242 1 2 -1.169684 -13.789313 -0.601115 # B 
243 1 1 -1.498813 -14.108891 -0.703310 # A 
244 1 1 -1.945193 4.768671 14.098946 # A 
245 1 2 -1.900544 4.311806 14.199847 # B 
246 1 1 -1.855894 3.854941 14.300748 # A 
247 1 1 -11.206854 8.554202 -11.599423 # A 
248 1 2 -10.755228 8.472402 -11.498219 # B 
249 1 1 -10.303601 8.390602 -11.397014 # A 
250 1 1 -13.117173 13.870116 8.323923 # A 
251 1 2 -13.564862 13.890682 8.182319 # B 
252 1 1 -14.012550 13.911248 8.040715 # A 
253 1 1 11.131813 5.596660 14.498211 # A 
254 1 2 11.220208 5.656842 14.040538 # B 
255 1 1 11.308604 5.717024 13.582865 # A 
256 1 1 1.844662 -1.276307 4.767183 # A 
257 1 2 1.532568 -1.070563 5.052081 # B 
258 1 1 1.220473 -0.864819 5.336978 # A 
259 1 1 8.299676 10.309255 1.561286 # A 
260 1 2 8.736809 10.329359 1.389791 # B 
261 1 1 9.173941 10.349463 1.218295 # A 
262 1 1 9.501274 -6.605230 11.498470 # A 
263 1 2 9.274988 -6.395420 11.143964 # B 
264 1 1 9.048701 -6.185611 10.789459 # A 
265 1 1 2.309179 -9.420866 -3.885436 # A 
266 1 2 2.633931 -9.273313 -3.579390 # B 
267 1 1 2.958684 -9.125760 -3.273345 # A 
268 1 1 -11.437641 6.038501 -9.928582 # A 
269 1 2 -11.448553 6.326615 -9.557407 # B 
270 1 1 -11.459465 6.614730 -9.186232 # A 
271 1 1 -5.556617 5.802435 -4.119126 # A 
272 1 2 -5.369240 5.505136 -3.807032 # B 
273 1 1 -5.181863 5.207836 -3.494938 # A 
274 1 1 -11.053245 -11.571072 -14.482446 # A 
275 1 2 -11.049644 -11.578988 -14.012526 # B 
276 1 1 -11.046043 -11.586904 -13.542607 # A 
277 1 1 9.714861 6.348947 11.127616 # A 
278 1 2 10.014417 6.051907 10.920414 # B 
279 1 1 10.313973 5.754866 10.713211 # A 
280 1 1 -13.933111 -14.104555 -2.538057 # A 
281 1 2 -14.104057 -13.949041 -2.128798 # B 
282 1 1 -14.275003 -13.793527 -1.719539 # A 
283 1 1 5.142702 -13.054908 7.971218 # A 
284 1 2 5.259219 -12.680647 7.711887 # B 
285 1 1 5.375736 -12.306386 7.452556 # A 
286 1 1 -8.379779 -3.684896 7.260086 # A 
287 1 2 -8.624829 -3.775685 6.869436 # B 
288 1 1 -8.869879 -3.866473 6.478785 # A 
289 1 1 -11.171779 11.594704 7.863554 # A 
290 1 2 -10.744936 11.431603 7.753540 # B 
291 1 1 -10.318093 11.268502 7.643526 # A 
292 1 1 13.139647 -13.802287 13.661336 # A 
293 1 2 13.593561 -13.873155 13.760531 # B 
294 1 1 14.047476 -13.944023 13.859726 # A 
295 1 1 -2.676576 -5.756667 5.837691 # A 
296 1 2 -2.625896 -6.149679 6.090422 # B 
297 1 1 -2.575216 -6.542691 6.343154 # A 
298 1 1 -1.451644 -3.117925 -5.710384 # A 
299 1 2 -1.752435 -3.162627 -5.352018 # B 
300 1 1 -2.053227 -3.207329 -4.993652 # A 
301 1 1 -0.290295 7.375689 -11.233609 # A 
302 1 2 -0.543678 7.766306 -11.297761 # B 
303 1 1 -0.797060 8.156924 -11.361914 # A 
304 1 1 1.551858 -4.316157 12.433866 # A 
305 1 2 1.803857 -4.345668 12.829499 # B 
306 1 1 2.055855 -4.375180 13.225133 # A 
307 1 1 -3.699275 -10.948932 14.073102 # A 
308 1 2 -4.087332 -11.102905 13.857223 # B 
309 1 1 -4.475390 -11.256878 13.641345 # A 
310 1 1 3.051974 -1.180760 2.029317 # A 
311 1 2 2.842649 -1.208870 1.609444 # B 
312 1 1 2.633324 -1.236981 1.189572 # A 
313 1 1 -11.854684 -8.056360 -8.166577 # A 
314 1 2 -11.843169 -7.669950 -8.433888 # B 
315 1 1 -11.831654 -7.283541 -8.701199 # A 
316 1 1 14.003790 10.404469 12.028114 # A 
317 1 2 14.081252 10.184389 12.436114 # B 
318 1 1 14.158714 9.964308 12.844114 # A 
319 1 1 7.790818 14.233280 6.281652 # A 
320 1 2 7.826713 13.764994 6.299521 # B 
321 1 1 7.862608 13.296707 6.317389 # A 
322 1 1 2.344138 -12.060109 -5.785214 # A 
323 1 2 1.930731 -11.837090 -5.769187 # B 
324 1 1 1.517324 -11.614070 -5.753160 # A 
325 1 1 -13.673395 2.408998 -3.834243 # A 
326 1 2 -14.069650 2.654615 -3.774625 # B 
327 1 1 -14.465905 2.900232 -3.715008 # A 
328 1 1 11.600637 -5.876022 -2.855936 # A 
329 1 2 11.210639 -6.138182 -2.847398 # B 
330 1 1 10.820640 -6.400343 -2.838859 # A 
331 1 1 -11.312702 -9.025686 10.965981 # A 
332 1 2 -11.230579 -8.660392 11.250088 # B 
333 1 1 -11.148457 -8.295099 11.534195 # A 
334 1 1 -13.606651 -8.636803 -1.658300 # A 
335 1 2 -13.969225 -8.444021 -1.886939 # B 
336 1 1 -14.331799 -8.251240 -2.115577 # A 
337 1 1 13.917068 -14.340379 -13.795023 # A 
338 1 2 13.797617 -14.251434 -13.349242 # B 
339 1 1 13.678167 -14.162488 -12.903462 # A 
340 1 1 -13.606241 -2.118575 7.339170 # A 
341 1 2 -13.746337 -2.096607 7.787267 # B 
342 1 1 -13.886432 -2.074640 8.235363 # A 
343 1 1 0.730786 -6.425724 -11.306339 # A 
344 1 2 0.974260 -6.083794 -11.094906 # B 
345 1 1 1.217735 -5.741864 -10.883473 # A 
346 1 1 6.018836 -11.939529 4.437028 # A 
347 1 2 6.104334 -11.926304 3.975059 # B 
348 1 1 6.189832 -11.913079 3.513091 # A 
349 1 1 3.349287 -7.427913 -5.831606 # A 
350 1 2 3.792127 -7.528922 -5.710817 # B 
351 1 1 4.234967 -7.629931 -5.590027 # A 
352 1 1 -11.511691 3.047101 7.037600 # A 
353 1 2 -11.437649 2.729603 7.376146 # B 
354 1 1 -11.363607 2.412105 7.714691 # A 
355 1 1 6.345597 -6.906312 0.943182 # A 
356 1 2 5.904841 -7.056507 0.879339 # B 
357 1 1 5.464086 -7.206702 0.815496 # A 
358 1 1 -6.375725 -3.728704 -8.793455 # A 
359 1 2 -6.764584 -3.857074 -8.562783 # B 
360 1 1 -7.153443 -3.985445 -8.332112 # A 
361 1 1 -8.763730 -1.254359 0.589392 # A 
362 1 2 -8.876379 -0.799006 0.559990 # B 
363 1 1 -8.989028 -0.343654 0.530587 # A 
364 1 1 -2.425330 14.019868 10.528609 # A 
365 1 2 -2.857439 14.203981 10.511763 # B 
366 1 1 -3.289549 14.388094 10.494916 # A 
367 1 1 -7.480257 11.822049 -6.737680 # A 
368 1 2 -7.603358 11.368645 -6.750738 # B 
369 1 1 -7.726460 10.915241 -6.763796 # A 
370 1 1 14.289342 -11.600882 0.359769 # A 
371 1 2 14.342193 -11.354065 -0.036701 # B 
372 1 1 14.395043 -11.107248 -0.433171 # A 
373 1 1 6.129204 -3.502862 -5.063818 # A 
374 1 2 5.946863 -3.466365 -4.632170 # B 
375 1 1 5.764521 -3.429868 -4.200523 # A 
376 1 1 -5.832471 -5.936870 -14.541934 # A 
377 1 2 -5.398955 -6.049457 -14.399499 # B 
378 1 1 -4.965438 -6.162043 -14.257063 # A 
379 1 1 -11.898381 -10.958612 -8.912716 # A 
380 1 2 -11.564720 -11.248332 -9.072819 # B 
381 1 1 -11.231059 -11.538051 -9.232921 # A 
382 1 1 4.194026 8.521236 10.625490 # A 
383 1 2 4.143885 8.449511 11.087271 # B 
384 1 1 4.093743 8.377787 11.549052 # A 
385 1 1 11.287897 -9.005165 11.552667 # A 
386 1 2 11.308464 -9.161310 11.109840 # B 
387 1 1 11.329031 -9.317454 10.667013 # A 
388 1 1 -11.913594 -8.235414 -5.176834 # A 
389 1 2 -12.066124 -8.277749 -4.734293 # B 
390 1 1 -12.218653 -8.320083 -4.291752 # A 
391 1 1 6.372408 8.035075 1.704607 # A 
392 1 2 5.943879 7.925799 1.863735 # B 
393 1 1 5.515350 7.816522 2.022862 # A 
394 1 1 -1.356639 -13.833935 8.338389 # A 
395 1 2 -1.175265 -13.404755 8.400094 # B 
396 1 1 -0.993890 -12.975575 8.461800 # A 
397 1 1 1.995575 5.500904 -12.477057 # A 
398 1 2 2.278461 5.424508 -12.844533 # B 
399 1 1 2.561348 5.348112 -13.212009 # A 
400 1 1 2.825499 11.379454 3.564721 # A 
401 1 2 3.063662 11.764696 3.690284 # B 
402 1 1 3.301826 12.149939 3.815847 # A 
403 1 1 -9.988179 -14.376288 -14.077266 # A 
404 1 2 -9.583114 -14.169036 -13.959502 # B 
405 1 1 -9.178048 -13.961784 -13.841738 # A 
406 1 1 -7.110319 -11.804130 -9.089130 # A 
407 1 2 -7.504593 -11.960526 -8.886675 # B 
408 1 1 -7.898868 -12.116922 -8.684220 # A 
409 1 1 1.914874 -1.490403 13.991636 # A 
410 1 2 1.449104 -1.552194 14.003493 # B 
411 1 1 0.983335 -1.613985 14.015349 # A 
412 1 1 12.356918 14.209827 -7.980227 # A 
413 1 2 12.365160 14.199026 -8.450031 # B 
414 1 1 12.373401 14.188225 -8.919835 # A 
415 1 1 7.970242 12.404994 -6.256606 # A 
416 1 2 8.239897 12.738295 -6.064001 # B 
417 1 1 8.509553 13.071596 -5.871396 # A 
418 1 1 -2.311758 -6.410056 14.550280 # A 
419 1 2 -2.316341 -6.406304 14.080317 # B 
420 1 1 -2.320925 -6.402552 13.610355 # A 
421 1 1 -14.168248 -10.741964 -6.967250 # A 
422 1 2 -13.977533 -10.320174 -6.885882 # B 
423 1 1 -13.786817 -9.898384 -6.804514 # A 
424 1 1 9.674631 3.715328 -8.526510 # A 
425 1 2 9.472483 3.513508 -8.899746 # B 
426 1 1 9.270334 3.311688 -9.272981 # A 
427 1 1 -8.183822 -14.518211 -10.448985 # A 
428 1 2 -8.068861 -14.211532 -10.786078 # B 
429 1 1 -7.953900 -13.904853 -11.123171 # A 
430 1 1 2.642018 -9.099839 6.425642 # A 
431 1 2 2.642467 -8.994337 6.883648 # B 
432 1 1 2.642917 -8.888836 7.341654 # A 
433 1 1 2.594384 11.727455 6.767865 # A 
434 1 2 2.646259 11.282132 6.626811 # B 
435 1 1 2.698134 10.836809 6.485756 # A 
436 1 1 5.244063 -11.495140 -8.520555 # A 
437 1 2 5.517580 -11.409752 -8.893111 # B 
438 1 1 5.791096 -11.324364 -9.265666 # A 
439 1 1 8.118280 14.023655 0.372501 # A 
440 1 2 8.281659 13.583547 0.395143 # B 
441 1 1 8.445039 13.143440 0.417785 # A 
442 1 1 -0.999339 -14.266484 11.270126 # A 
443 1 2 -0.711286 -14.232314 11.639934 # B 
444 1 1 -0.423233 -14.198145 12.009741 # A 
445 1 1 4.898332 13.580191 -14.181218 # A 
446 1 2 4.910070 13.859413 -13.803333 # B 
447 1 1 4.921809 14.138635 -13.425447 # A 
448 1 1 8.712671 -11.506087 -9.792548 # A 
449 1 2 8.795480 -11.067857 -9.644233 # B 
450 1 1 8.878289 -10.629627 -9.495918 # A 
451 1 1 -4.389493 -1.393520 13.626868 # A 
452 1 2 -4.381103 -1.619269 13.214719 # B 
453 1 1 -4.372713 -1.845017 12.802570 # A 
454 1 1 -7.248506 -8.984698 6.286858 # A 
455 1 2 -6.957263 -8.659260 6.113171 # B 
456 1 1 -6.666020 -8.333822 5.939483 # A 
457 1 1 10.766517 9.299089 7.420762 # A 
458 1 2 11.067770 9.415338 7.762278 # B 
459 1 1 11.369023 9.531588 8.103793 # A 
460 1 1 -8.630599 9.360289 2.900869 # A 
461 1 2 -8.257961 9.519368 3.139059 # B 
462 1 1 -7.885322 9.678447 3.377248 # A 
463 1 1 -14.271583 -3.113099 0.887922 # A 
464 1 2 -14.445446 -2.678805 0.842535 # B 
465 1 1 -14.619309 -2.244510 0.797149 # A 
466 1 1 -0.127324 -14.234527 5.632779 # A 
467 1 2 0.190586 -13.926534 5.790808 # B 
468 1 1 0.508497 -13.618541 5.948837 # A 
469 1 1 14.592139 -2.631855 2.351166 # A 
470 1 2 14.319608 -2.444982 2.685389 # B 
471 1 1 14.047077 -2.258109 3.019612 # A 
472 1 1 -12.194953 6.531074 9.262070 # A 
473 1 2 -11.958109 6.129060 9.318544 # B 
474 1 1 -11.721265 5.727045 9.375017 # A 
475 1 1 -7.924038 -11.805315 3.041562 # A 
476 1 2 -7.612421 -12.090479 2.835464 # B 
477 1 1 -7.300804 -12.375643 2.629366 # A 
478 1 1 4.583151 0.845182 -6.959036 # A 
479 1 2 4.153989 0.973138 -7.101679 # B 
480 1 1 3.724827 1.101093 -7.244322 # A 
481 1 1 2.384389 -14.017183 13.028578 # A 
482 1 2 2.313681 -14.066948 13.490556 # B 
483 1 1 2.242974 -14.116714 13.952534 # A 
484 1 1 -14.313444 10.979042 -5.134638 # A 
485 1 2 -14.172046 11.255935 -4.782166 # B 
486 1 1 -14.030648 11.532829 -4.429693 # A 
487 1 1 -1.148870 -8.092557 0.872335 # A 
488 1 2 -1.434612 -7.784855 1.083453 # B 
489 1 1 -1.720355 -7.477154 1.294572 # A 
490 1 1 -14.327291 -8.997943 1.958289 # A 
491 1 2 -14.460388 -8.788223 1.559287 # B 
492 1 1 -14.593486 -8.578503 1.160285 # A 
493 1 1 -6.267021 1.323109 4.692925 # A 
494 1 2 -6.183792 1.149541 5.121699 # B 
495 1 1 -6.100563 0.975973 5.550473 # A 
496 1 1 14.610717 9.957939 5.422522 # A 
497 1 2 14.537699 9.819173 5.865593 # B 
498 1 1 14.464682 9.680407 6.308665 # A 
499 1 1 7.379081 -14.204584 6.274197 # A 
500 1 2 7.638137 -14.115097 6.656011 # B 
501 1 1 7.897194 -14.025611 7.037825 # A 
502 1 1 10.705814 2.338755 -13.159486 # A 
503 1 2 10.710207 2.375479 -13.628028 # B 
504 1 1 10.714600 2.412203 -14.096571 # A 
505 1 1 -12.995213 -5.659596 -3.146134 # A 
506 1 2 -13.421854 -5.657873 -3.343299 # B 
507 1 1 -13.848495 -5.656150 -3.540465 # A 
508 1 1 14.081496 -8.218337 -5.133067 # A 
509 1 2 13.926720 -8.433868 -5.520999 # B 
510 1 1 13.771945 -8.649399 -5.908931 # A 
511 1 1 11.847295 11.559160 1.715645 # A 
512 1 2 11.779934 11.466696 2.171510 # B 
513 1 1 11.712572 11.374231 2.627374 # A 
514 1 1 -2.173467 -14.152288 -4.519146 # A 
515 1 2 -2.205415 -14.212772 -4.054151 # B 
516 1 1 -2.237363 -14.273256 -3.589155 # A 
517 1 1 1.903895 9.566942 9.026058 # A 
518 1 2 1.745521 9.192229 8.790667 # B 
519 1 1 1.587147 8.817517 8.555277 # A 
520 1 1 -0.623848 -7.604120 -13.780118 # A 
521 1 2 -0.179910 -7.750807 -13.828103 # B 
522 1 1 0.264027 -7.897494 -13.876088 # A 
523 1 1 -6.161193 -11.310314 0.078426 # A 
524 1 2 -5.770865 -11.506959 0.251267 # B 
525 1 1 -5.380536 -11.703605 0.424109 # A 
526 1 1 -8.469064 -7.984536 14.345031 # A 
527 1 2 -8.474172 -7.992600 13.875128 # B 
528 1 1 -8.479279 -8.000663 13.405225 # A 
529 1 1 -9.396763 4.032183 -7.202972 # A 
530 1 2 -9.607187 4.246261 -7.564625 # B 
531 1 1 -9.817610 4.460338 -7.926278 # A 
532 1 1 -10.304475 6.539415 -5.777866 # A 
533 1 2 -10.721450 6.535044 -5.994689 # B 
534 1 1 -11.138426 6.530673 -6.211513 # A 
535 1 1 2.096436 -9.434989 -7.769860 # A 
536 1 2 2.532064 -9.601993 -7.712955 # B 
537 1 1 2.967692 -9.768996 -7.656050 # A 
538 1 1 9.466089 -8.618431 1.772741 # A 
539 1 2 9.299912 -8.191462 1.667945 # B 
540 1 1 9.133734 -7.764492 1.563148 # A 
541 1 1 -10.403793 -0.005219 3.342378 # A 
542 1 2 -10.047768 -0.288555 3.460136 # B 
543 1 1 -9.691743 -0.571892 3.577893 # A 
544 1 1 3.570538 11.456358 11.601826 # A 
545 1 2 3.127515 11.367143 11.472709 # B 
546 1 1 2.684493 11.277927 11.343591 # A 
547 1 1 -11.764811 -0.144327 -5.741846 # A 
548 1 2 -11.899894 0.305560 -5.725896 # B 
549 1 1 -12.034976 0.755447 -5.709945 # A 
550 1 1 8.317438 -0.165695 -11.762594 # A 
551 1 2 8.714630 0.077009 -11.697534 # B 
552 1 1 9.111823 0.319713 -11.632475 # A 
553 1 1 -8.877729 0.491668 -6.174828 # A 
554 1 2 -8.994488 0.927215 -6.042289 # B 
555 1 1 -9.111246 1.362761 -5.909750 # A 
556 1 1 9.264751 11.031185 4.362020 # A 
557 1 2 9.395974 10.581335 4.325751 # B 
558 1 1 9.527198 10.131485 4.289482 # A 
559 1 1 1.118441 -9.469641 3.222495 # A 
560 1 2 1.108424 -9.464247 2.752633 # B 
561 1 1 1.098406 -9.458854 2.282771 # A 
562 1 1 -14.312925 -4.397151 13.619778 # A 
563 1 2 -13.900789 -4.429612 13.843362 # B 
564 1 1 -13.488653 -4.462074 14.066946 # A 
565 1 1 6.179602 -2.060407 -10.860464 # A 
566 1 2 6.121467 -2.342760 -11.231675 # B 
567 1 1 6.063331 -2.625113 -11.602885 # A 
568 1 1 14.084380 6.459738 -12.880942 # A 
569 1 2 14.044201 6.651754 -13.308043 # B 
570 1 1 14.004023 6.843770 -13.735144 # A 
571 1 1 -11.139645 -9.785635 14.107743 # A 
572 1 2 -10.746272 -10.042844 14.108695 # B 
573 1 1 -10.352898 -10.300053 14.109647 # A 
574 1 1 4.614136 -13.518091 -10.930818 # A 
575 1 2 4.752782 -13.794014 -10.576496 # B 
576 1 1 4.891428 -14.069937 -10.222175 # A 
577 1 1 -10.007831 -4.283203 -9.041781 # A 
578 1 2 -10.456102 -4.274623 -9.182774 # B 
579 1 1 -10.904374 -4.266042 -9.323767 # A 
580 1 1 -6.629414 -5.567375 4.287807 # A 
581 1 2 -6.565333 -5.504851 4.749201 # B 
582 1 1 -6.501253 -5.442327 5.210595 # A 
583 1 1 14.400515 10.523068 -0.761396 # A 
584 1 2 13.938903 10.558915 -0.680592 # B 
585 1 1 13.477291 10.594762 -0.599788 # A 
586 1 1 -10.124069 1.558324 -8.752950 # A 
587 1 2 -10.545790 1.618247 -8.554302 # B 
588 1 1 -10.967510 1.678171 -8.355655 # A 
589 1 1 12.100100 -14.394912 -10.369351 # A 
590 1 2 11.716360 -14.204475 -10.562685 # B 
591 1 1 11.332621 -14.014039 -10.756019 # A 
592 1 1 -2.879239 13.242599 -11.548445 # A 
593 1 2 -3.163674 13.616665 -11.556937 # B 
594 1 1 -3.448109 13.990730 -11.565428 # A 
595 1 1 -0.227664 10.593326 -13.001021 # A 
596 1 2 -0.037544 11.018049 -12.934955 # B 
597 1 1 0.152576 11.442772 -12.868890 # A 
598 1 1 1.572378 -0.620338 -14.162760 # A 
599 1 2 1.273982 -0.972818 -14.250043 # B 
600 1 1 0.975587 -1.325298 -14.337326 # A 
601 1 1 13.480579 3.462461 -12.966360 # A 
602 1 2 13.676752 3.541502 -13.386084 # B 
603 1 1 13.872925 3.620543 -13.805809 # A 
604 1 1 14.436189 -11.491447 -3.414827 # A 
605 1 2 14.252331 -11.059409 -3.393854 # B 
606 1 1 14.068472 -10.627372 -3.372881 # A 
607 1 1 -5.953933 -9.319490 -10.306832 # A 
608 1 2 -5.920949 -9.107684 -10.725103 # B 
609 1 1 -5.887964 -8.895879 -11.143374 # A 
610 1 1 11.897225 -3.532220 11.635406 # A 
611 1 2 11.607067 -3.891208 11.723926 # B 
612 1 1 11.316910 -4.250196 11.812446 # A 
613 1 1 5.276723 -1.358280 -14.184652 # A 
614 1 2 4.896652 -1.138284 -14.352125 # B 
615 1 1 4.516580 -0.918287 -14.519599 # A 
616 1 1 0.681030 -14.144532 -2.987929 # A 
617 1 2 0.780058 -14.091738 -3.444335 # B 
618 1 1 0.879087 -14.038945 -3.900740 # A 
619 1 1 -5.402017 5.457905 -9.583944 # A 
620 1 2 -5.260023 5.831330 -9.336373 # B 
621 1 1 -5.118029 6.204755 -9.088802 # A 
622 1 1 3.326408 -7.522435 -9.721836 # A 
623 1 2 3.659217 -7.431622 -9.402631 # B 
624 1 1 3.992025 -7.340809 -9.083427 # A 
625 1 1 -3.953215 -3.494155 3.249358 # A 
626 1 2 -4.066899 -3.688467 3.661933 # B 
627 1 1 -4.180582 -3.882780 4.074509 # A 
628 1 1 10.877224 14.264598 -0.924225 # A 
629 1 2 11.163358 13.983461 -0.679299 # B 
630 1 1 11.449492 13.702323 -0.434372 # A 
631 1 1 -2.154277 9.249292 -5.820419 # A 
632 1 2 -1.888085 8.874628 -5.918752 # B 
633 1 1 -1.621893 8.499965 -6.017085 # A 
634 1 1 -12.173915 -11.737927 11.903408 # A 
635 1 2 -12.018485 -12.039717 12.228468 # B 
636 1 1 -11.863054 -12.341507 12.553528 # A 
637 1 1 2.330283 2.405409 11.439464 # A 
638 1 2 2.637271 2.131025 11.666118 # B 
639 1 1 2.944259 1.856642 11.892771 # A 
640 1 1 11.299467 -6.414812 13.882390 # A 
641 1 2 11.615802 -6.128871 14.080050 # B 
642 1 1 11.932138 -5.842929 14.277710 # A 
643 1 1 1.328473 12.082738 -8.554438 # A 
644 1 2 1.543702 12.060491 -8.971669 # B 
645 1 1 1.758930 12.038245 -9.388900 # A 
646 1 1 -3.783206 8.248459 -3.405815 # A 
647 1 2 -3.972799 8.666103 -3.508422 # B 
648 1 1 -4.162392 9.083746 -3.611030 # A 
649 1 1 -0.289659 -2.978275 10.509306 # A 
650 1 2 -0.669510 -2.705368 10.555504 # B 
651 1 1 -1.049362 -2.432460 10.601702 # A 
652 1 1 -13.334423 -13.881458 8.237320 # A 
653 1 2 -13.654195 -13.537481 8.219263 # B 
654 1 1 -13.973967 -13.193505 8.201206 # A 
655 1 1 5.341924 10.822998 2.018718 # A 
656 1 2 5.508691 11.260897 1.982203 # B 
657 1 1 5.675459 11.698796 1.945688 # A 
658 1 1 -14.414266 -10.787556 6.125721 # A 
659 1 2 -13.958579 -10.885039 6.186926 # B 
660 1 1 -13.502891 -10.982522 6.248132 # A 
661 1 1 4.604376 -3.764139 7.873057 # A 
662 1 2 5.071572 -3.798820 7.910808 # B 
663 1 1 5.538768 -3.833501 7.948558 # A 
664 1 1 -6.383661 -4.197782 1.638295 # A 
665 1 2 -6.365942 -3.735460 1.555561 # B 
666 1 1 -6.348222 -3.273139 1.472827 # A 
667 1 1 -5.595540 0.559323 11.500838 # A 
668 1 2 -5.866070 0.249271 11.273724 # B 
669 1 1 -6.136599 -0.060782 11.046609 # A 
670 1 1 -8.809970 1.938888 9.170607 # A 
671 1 2 -8.576384 1.533810 9.123175 # B 
672 1 1 -8.342799 1.128732 9.075742 # A 
673 1 1 -3.306528 -0.673570 -5.972595 # A 
674 1 2 -3.560507 -0.558187 -5.594334 # B 
675 1 1 -3.814485 -0.442804 -5.216073 # A 
676 1 1 12.111656 -6.460097 6.242950 # A 
677 1 2 11.660626 -6.591410 6.258085 # B 
678 1 1 11.209596 -6.722723 6.273221 # A 